LAMMPS data file. CGCMM style. atom_style full generated by VMD/TopoTools v1.5 on Tue Dec 01 17:23:18 IST 2015
 2858 atoms
 29 bonds
 0 angles
 0 dihedrals
 0 impropers
 3 atom types
 1 bond types
 0 angle types
 0 dihedral types
 0 improper types
 -50.0000  50.0000  xlo xhi
 -30.0000  30.0000  ylo yhi
 -30.0000  30.0000  zlo zhi

# Pair Coeffs
#
# 1  1
# 2  2
# 3  C

# Bond Coeffs
#
# 1  

 Masses

 1 12.000000 # 1
 2 12.000000 # 2
 3 1.000000 # C

 Atoms

1 1 1 0.000000 -48.959999 -28.559999 -28.559999 # 1 UNK
2 1 1 0.000000 -46.919998 -26.520000 -28.559999 # 1 UNK
3 1 1 0.000000 -46.919998 -28.559999 -26.520000 # 1 UNK
4 1 1 0.000000 -48.959999 -26.520000 -26.520000 # 1 UNK
5 1 1 0.000000 -44.880001 -28.559999 -28.559999 # 1 UNK
6 1 1 0.000000 -42.840000 -26.520000 -28.559999 # 1 UNK
7 1 1 0.000000 -42.840000 -28.559999 -26.520000 # 1 UNK
8 1 1 0.000000 -44.880001 -26.520000 -26.520000 # 1 UNK
9 1 1 0.000000 -40.799999 -28.559999 -28.559999 # 1 UNK
10 1 1 0.000000 -38.759998 -26.520000 -28.559999 # 1 UNK
11 1 1 0.000000 -38.759998 -28.559999 -26.520000 # 1 UNK
12 1 1 0.000000 -40.799999 -26.520000 -26.520000 # 1 UNK
13 1 1 0.000000 -36.720001 -28.559999 -28.559999 # 1 UNK
14 1 1 0.000000 -34.680000 -26.520000 -28.559999 # 1 UNK
15 1 1 0.000000 -34.680000 -28.559999 -26.520000 # 1 UNK
16 1 1 0.000000 -36.720001 -26.520000 -26.520000 # 1 UNK
17 1 1 0.000000 -32.639999 -28.559999 -28.559999 # 1 UNK
18 1 1 0.000000 -30.600000 -26.520000 -28.559999 # 1 UNK
19 1 1 0.000000 -30.600000 -28.559999 -26.520000 # 1 UNK
20 1 1 0.000000 -32.639999 -26.520000 -26.520000 # 1 UNK
21 1 1 0.000000 -28.559999 -28.559999 -28.559999 # 1 UNK
22 1 1 0.000000 -26.520000 -26.520000 -28.559999 # 1 UNK
23 1 1 0.000000 -26.520000 -28.559999 -26.520000 # 1 UNK
24 1 1 0.000000 -28.559999 -26.520000 -26.520000 # 1 UNK
25 1 1 0.000000 -24.480000 -28.559999 -28.559999 # 1 UNK
26 1 1 0.000000 -22.440001 -26.520000 -28.559999 # 1 UNK
27 1 1 0.000000 -22.440001 -28.559999 -26.520000 # 1 UNK
28 1 1 0.000000 -24.480000 -26.520000 -26.520000 # 1 UNK
29 1 1 0.000000 -20.400000 -28.559999 -28.559999 # 1 UNK
30 1 1 0.000000 -18.360001 -26.520000 -28.559999 # 1 UNK
31 1 1 0.000000 -18.360001 -28.559999 -26.520000 # 1 UNK
32 1 1 0.000000 -20.400000 -26.520000 -26.520000 # 1 UNK
33 1 1 0.000000 -16.320000 -28.559999 -28.559999 # 1 UNK
34 1 1 0.000000 -14.280000 -26.520000 -28.559999 # 1 UNK
35 1 1 0.000000 -14.280000 -28.559999 -26.520000 # 1 UNK
36 1 1 0.000000 -16.320000 -26.520000 -26.520000 # 1 UNK
37 1 1 0.000000 -12.240000 -28.559999 -28.559999 # 1 UNK
38 1 1 0.000000 -10.200000 -26.520000 -28.559999 # 1 UNK
39 1 1 0.000000 -10.200000 -28.559999 -26.520000 # 1 UNK
40 1 1 0.000000 -12.240000 -26.520000 -26.520000 # 1 UNK
41 1 1 0.000000 -8.160000 -28.559999 -28.559999 # 1 UNK
42 1 1 0.000000 -6.120000 -26.520000 -28.559999 # 1 UNK
43 1 1 0.000000 -6.120000 -28.559999 -26.520000 # 1 UNK
44 1 1 0.000000 -8.160000 -26.520000 -26.520000 # 1 UNK
45 1 1 0.000000 -4.080000 -28.559999 -28.559999 # 1 UNK
46 1 1 0.000000 -2.040000 -26.520000 -28.559999 # 1 UNK
47 1 1 0.000000 -2.040000 -28.559999 -26.520000 # 1 UNK
48 1 1 0.000000 -4.080000 -26.520000 -26.520000 # 1 UNK
49 1 1 0.000000 -48.959999 -28.559999 -24.480000 # 1 UNK
50 1 1 0.000000 -46.919998 -26.520000 -24.480000 # 1 UNK
51 1 1 0.000000 -46.919998 -28.559999 -22.440001 # 1 UNK
52 1 1 0.000000 -48.959999 -26.520000 -22.440001 # 1 UNK
53 1 1 0.000000 -44.880001 -28.559999 -24.480000 # 1 UNK
54 1 1 0.000000 -42.840000 -26.520000 -24.480000 # 1 UNK
55 1 1 0.000000 -42.840000 -28.559999 -22.440001 # 1 UNK
56 1 1 0.000000 -44.880001 -26.520000 -22.440001 # 1 UNK
57 1 1 0.000000 -40.799999 -28.559999 -24.480000 # 1 UNK
58 1 1 0.000000 -38.759998 -26.520000 -24.480000 # 1 UNK
59 1 1 0.000000 -38.759998 -28.559999 -22.440001 # 1 UNK
60 1 1 0.000000 -40.799999 -26.520000 -22.440001 # 1 UNK
61 1 1 0.000000 -36.720001 -28.559999 -24.480000 # 1 UNK
62 1 1 0.000000 -34.680000 -26.520000 -24.480000 # 1 UNK
63 1 1 0.000000 -34.680000 -28.559999 -22.440001 # 1 UNK
64 1 1 0.000000 -36.720001 -26.520000 -22.440001 # 1 UNK
65 1 1 0.000000 -32.639999 -28.559999 -24.480000 # 1 UNK
66 1 1 0.000000 -30.600000 -26.520000 -24.480000 # 1 UNK
67 1 1 0.000000 -30.600000 -28.559999 -22.440001 # 1 UNK
68 1 1 0.000000 -32.639999 -26.520000 -22.440001 # 1 UNK
69 1 1 0.000000 -28.559999 -28.559999 -24.480000 # 1 UNK
70 1 1 0.000000 -26.520000 -26.520000 -24.480000 # 1 UNK
71 1 1 0.000000 -26.520000 -28.559999 -22.440001 # 1 UNK
72 1 1 0.000000 -28.559999 -26.520000 -22.440001 # 1 UNK
73 1 1 0.000000 -24.480000 -28.559999 -24.480000 # 1 UNK
74 1 1 0.000000 -22.440001 -26.520000 -24.480000 # 1 UNK
75 1 1 0.000000 -22.440001 -28.559999 -22.440001 # 1 UNK
76 1 1 0.000000 -24.480000 -26.520000 -22.440001 # 1 UNK
77 1 1 0.000000 -20.400000 -28.559999 -24.480000 # 1 UNK
78 1 1 0.000000 -18.360001 -26.520000 -24.480000 # 1 UNK
79 1 1 0.000000 -18.360001 -28.559999 -22.440001 # 1 UNK
80 1 1 0.000000 -20.400000 -26.520000 -22.440001 # 1 UNK
81 1 1 0.000000 -16.320000 -28.559999 -24.480000 # 1 UNK
82 1 1 0.000000 -14.280000 -26.520000 -24.480000 # 1 UNK
83 1 1 0.000000 -14.280000 -28.559999 -22.440001 # 1 UNK
84 1 1 0.000000 -16.320000 -26.520000 -22.440001 # 1 UNK
85 1 1 0.000000 -12.240000 -28.559999 -24.480000 # 1 UNK
86 1 1 0.000000 -10.200000 -26.520000 -24.480000 # 1 UNK
87 1 1 0.000000 -10.200000 -28.559999 -22.440001 # 1 UNK
88 1 1 0.000000 -12.240000 -26.520000 -22.440001 # 1 UNK
89 1 1 0.000000 -8.160000 -28.559999 -24.480000 # 1 UNK
90 1 1 0.000000 -6.120000 -26.520000 -24.480000 # 1 UNK
91 1 1 0.000000 -6.120000 -28.559999 -22.440001 # 1 UNK
92 1 1 0.000000 -8.160000 -26.520000 -22.440001 # 1 UNK
93 1 1 0.000000 -4.080000 -28.559999 -24.480000 # 1 UNK
94 1 1 0.000000 -2.040000 -26.520000 -24.480000 # 1 UNK
95 1 1 0.000000 -2.040000 -28.559999 -22.440001 # 1 UNK
96 1 1 0.000000 -4.080000 -26.520000 -22.440001 # 1 UNK
97 1 1 0.000000 -48.959999 -28.559999 -20.400000 # 1 UNK
98 1 1 0.000000 -46.919998 -26.520000 -20.400000 # 1 UNK
99 1 1 0.000000 -46.919998 -28.559999 -18.360001 # 1 UNK
100 1 1 0.000000 -48.959999 -26.520000 -18.360001 # 1 UNK
101 1 1 0.000000 -44.880001 -28.559999 -20.400000 # 1 UNK
102 1 1 0.000000 -42.840000 -26.520000 -20.400000 # 1 UNK
103 1 1 0.000000 -42.840000 -28.559999 -18.360001 # 1 UNK
104 1 1 0.000000 -44.880001 -26.520000 -18.360001 # 1 UNK
105 1 1 0.000000 -40.799999 -28.559999 -20.400000 # 1 UNK
106 1 1 0.000000 -38.759998 -26.520000 -20.400000 # 1 UNK
107 1 1 0.000000 -38.759998 -28.559999 -18.360001 # 1 UNK
108 1 1 0.000000 -40.799999 -26.520000 -18.360001 # 1 UNK
109 1 1 0.000000 -36.720001 -28.559999 -20.400000 # 1 UNK
110 1 1 0.000000 -34.680000 -26.520000 -20.400000 # 1 UNK
111 1 1 0.000000 -34.680000 -28.559999 -18.360001 # 1 UNK
112 1 1 0.000000 -36.720001 -26.520000 -18.360001 # 1 UNK
113 1 1 0.000000 -32.639999 -28.559999 -20.400000 # 1 UNK
114 1 1 0.000000 -30.600000 -26.520000 -20.400000 # 1 UNK
115 1 1 0.000000 -30.600000 -28.559999 -18.360001 # 1 UNK
116 1 1 0.000000 -32.639999 -26.520000 -18.360001 # 1 UNK
117 1 1 0.000000 -28.559999 -28.559999 -20.400000 # 1 UNK
118 1 1 0.000000 -26.520000 -26.520000 -20.400000 # 1 UNK
119 1 1 0.000000 -26.520000 -28.559999 -18.360001 # 1 UNK
120 1 1 0.000000 -28.559999 -26.520000 -18.360001 # 1 UNK
121 1 1 0.000000 -24.480000 -28.559999 -20.400000 # 1 UNK
122 1 1 0.000000 -22.440001 -26.520000 -20.400000 # 1 UNK
123 1 1 0.000000 -22.440001 -28.559999 -18.360001 # 1 UNK
124 1 1 0.000000 -24.480000 -26.520000 -18.360001 # 1 UNK
125 1 1 0.000000 -20.400000 -28.559999 -20.400000 # 1 UNK
126 1 1 0.000000 -18.360001 -26.520000 -20.400000 # 1 UNK
127 1 1 0.000000 -18.360001 -28.559999 -18.360001 # 1 UNK
128 1 1 0.000000 -20.400000 -26.520000 -18.360001 # 1 UNK
129 1 1 0.000000 -16.320000 -28.559999 -20.400000 # 1 UNK
130 1 1 0.000000 -14.280000 -26.520000 -20.400000 # 1 UNK
131 1 1 0.000000 -14.280000 -28.559999 -18.360001 # 1 UNK
132 1 1 0.000000 -16.320000 -26.520000 -18.360001 # 1 UNK
133 1 1 0.000000 -12.240000 -28.559999 -20.400000 # 1 UNK
134 1 1 0.000000 -10.200000 -26.520000 -20.400000 # 1 UNK
135 1 1 0.000000 -10.200000 -28.559999 -18.360001 # 1 UNK
136 1 1 0.000000 -12.240000 -26.520000 -18.360001 # 1 UNK
137 1 1 0.000000 -8.160000 -28.559999 -20.400000 # 1 UNK
138 1 1 0.000000 -6.120000 -26.520000 -20.400000 # 1 UNK
139 1 1 0.000000 -6.120000 -28.559999 -18.360001 # 1 UNK
140 1 1 0.000000 -8.160000 -26.520000 -18.360001 # 1 UNK
141 1 1 0.000000 -4.080000 -28.559999 -20.400000 # 1 UNK
142 1 1 0.000000 -2.040000 -26.520000 -20.400000 # 1 UNK
143 1 1 0.000000 -2.040000 -28.559999 -18.360001 # 1 UNK
144 1 1 0.000000 -4.080000 -26.520000 -18.360001 # 1 UNK
145 1 1 0.000000 -48.959999 -28.559999 -16.320000 # 1 UNK
146 1 1 0.000000 -46.919998 -26.520000 -16.320000 # 1 UNK
147 1 1 0.000000 -46.919998 -28.559999 -14.280000 # 1 UNK
148 1 1 0.000000 -48.959999 -26.520000 -14.280000 # 1 UNK
149 1 1 0.000000 -44.880001 -28.559999 -16.320000 # 1 UNK
150 1 1 0.000000 -42.840000 -26.520000 -16.320000 # 1 UNK
151 1 1 0.000000 -42.840000 -28.559999 -14.280000 # 1 UNK
152 1 1 0.000000 -44.880001 -26.520000 -14.280000 # 1 UNK
153 1 1 0.000000 -40.799999 -28.559999 -16.320000 # 1 UNK
154 1 1 0.000000 -38.759998 -26.520000 -16.320000 # 1 UNK
155 1 1 0.000000 -38.759998 -28.559999 -14.280000 # 1 UNK
156 1 1 0.000000 -40.799999 -26.520000 -14.280000 # 1 UNK
157 1 1 0.000000 -36.720001 -28.559999 -16.320000 # 1 UNK
158 1 1 0.000000 -34.680000 -26.520000 -16.320000 # 1 UNK
159 1 1 0.000000 -34.680000 -28.559999 -14.280000 # 1 UNK
160 1 1 0.000000 -36.720001 -26.520000 -14.280000 # 1 UNK
161 1 1 0.000000 -32.639999 -28.559999 -16.320000 # 1 UNK
162 1 1 0.000000 -30.600000 -26.520000 -16.320000 # 1 UNK
163 1 1 0.000000 -30.600000 -28.559999 -14.280000 # 1 UNK
164 1 1 0.000000 -32.639999 -26.520000 -14.280000 # 1 UNK
165 1 1 0.000000 -28.559999 -28.559999 -16.320000 # 1 UNK
166 1 1 0.000000 -26.520000 -26.520000 -16.320000 # 1 UNK
167 1 1 0.000000 -26.520000 -28.559999 -14.280000 # 1 UNK
168 1 1 0.000000 -28.559999 -26.520000 -14.280000 # 1 UNK
169 1 1 0.000000 -24.480000 -28.559999 -16.320000 # 1 UNK
170 1 1 0.000000 -22.440001 -26.520000 -16.320000 # 1 UNK
171 1 1 0.000000 -22.440001 -28.559999 -14.280000 # 1 UNK
172 1 1 0.000000 -24.480000 -26.520000 -14.280000 # 1 UNK
173 1 1 0.000000 -20.400000 -28.559999 -16.320000 # 1 UNK
174 1 1 0.000000 -18.360001 -26.520000 -16.320000 # 1 UNK
175 1 1 0.000000 -18.360001 -28.559999 -14.280000 # 1 UNK
176 1 1 0.000000 -20.400000 -26.520000 -14.280000 # 1 UNK
177 1 1 0.000000 -16.320000 -28.559999 -16.320000 # 1 UNK
178 1 1 0.000000 -14.280000 -26.520000 -16.320000 # 1 UNK
179 1 1 0.000000 -14.280000 -28.559999 -14.280000 # 1 UNK
180 1 1 0.000000 -16.320000 -26.520000 -14.280000 # 1 UNK
181 1 1 0.000000 -12.240000 -28.559999 -16.320000 # 1 UNK
182 1 1 0.000000 -10.200000 -26.520000 -16.320000 # 1 UNK
183 1 1 0.000000 -10.200000 -28.559999 -14.280000 # 1 UNK
184 1 1 0.000000 -12.240000 -26.520000 -14.280000 # 1 UNK
185 1 1 0.000000 -8.160000 -28.559999 -16.320000 # 1 UNK
186 1 1 0.000000 -6.120000 -26.520000 -16.320000 # 1 UNK
187 1 1 0.000000 -6.120000 -28.559999 -14.280000 # 1 UNK
188 1 1 0.000000 -8.160000 -26.520000 -14.280000 # 1 UNK
189 1 1 0.000000 -4.080000 -28.559999 -16.320000 # 1 UNK
190 1 1 0.000000 -2.040000 -26.520000 -16.320000 # 1 UNK
191 1 1 0.000000 -2.040000 -28.559999 -14.280000 # 1 UNK
192 1 1 0.000000 -4.080000 -26.520000 -14.280000 # 1 UNK
193 1 1 0.000000 -48.959999 -28.559999 -12.240000 # 1 UNK
194 1 1 0.000000 -46.919998 -26.520000 -12.240000 # 1 UNK
195 1 1 0.000000 -46.919998 -28.559999 -10.200000 # 1 UNK
196 1 1 0.000000 -48.959999 -26.520000 -10.200000 # 1 UNK
197 1 1 0.000000 -44.880001 -28.559999 -12.240000 # 1 UNK
198 1 1 0.000000 -42.840000 -26.520000 -12.240000 # 1 UNK
199 1 1 0.000000 -42.840000 -28.559999 -10.200000 # 1 UNK
200 1 1 0.000000 -44.880001 -26.520000 -10.200000 # 1 UNK
201 1 1 0.000000 -40.799999 -28.559999 -12.240000 # 1 UNK
202 1 1 0.000000 -38.759998 -26.520000 -12.240000 # 1 UNK
203 1 1 0.000000 -38.759998 -28.559999 -10.200000 # 1 UNK
204 1 1 0.000000 -40.799999 -26.520000 -10.200000 # 1 UNK
205 1 1 0.000000 -36.720001 -28.559999 -12.240000 # 1 UNK
206 1 1 0.000000 -34.680000 -26.520000 -12.240000 # 1 UNK
207 1 1 0.000000 -34.680000 -28.559999 -10.200000 # 1 UNK
208 1 1 0.000000 -36.720001 -26.520000 -10.200000 # 1 UNK
209 1 1 0.000000 -32.639999 -28.559999 -12.240000 # 1 UNK
210 1 1 0.000000 -30.600000 -26.520000 -12.240000 # 1 UNK
211 1 1 0.000000 -30.600000 -28.559999 -10.200000 # 1 UNK
212 1 1 0.000000 -32.639999 -26.520000 -10.200000 # 1 UNK
213 1 1 0.000000 -28.559999 -28.559999 -12.240000 # 1 UNK
214 1 1 0.000000 -26.520000 -26.520000 -12.240000 # 1 UNK
215 1 1 0.000000 -26.520000 -28.559999 -10.200000 # 1 UNK
216 1 1 0.000000 -28.559999 -26.520000 -10.200000 # 1 UNK
217 1 1 0.000000 -24.480000 -28.559999 -12.240000 # 1 UNK
218 1 1 0.000000 -22.440001 -26.520000 -12.240000 # 1 UNK
219 1 1 0.000000 -22.440001 -28.559999 -10.200000 # 1 UNK
220 1 1 0.000000 -24.480000 -26.520000 -10.200000 # 1 UNK
221 1 1 0.000000 -20.400000 -28.559999 -12.240000 # 1 UNK
222 1 1 0.000000 -18.360001 -26.520000 -12.240000 # 1 UNK
223 1 1 0.000000 -18.360001 -28.559999 -10.200000 # 1 UNK
224 1 1 0.000000 -20.400000 -26.520000 -10.200000 # 1 UNK
225 1 1 0.000000 -16.320000 -28.559999 -12.240000 # 1 UNK
226 1 1 0.000000 -14.280000 -26.520000 -12.240000 # 1 UNK
227 1 1 0.000000 -14.280000 -28.559999 -10.200000 # 1 UNK
228 1 1 0.000000 -16.320000 -26.520000 -10.200000 # 1 UNK
229 1 1 0.000000 -12.240000 -28.559999 -12.240000 # 1 UNK
230 1 1 0.000000 -10.200000 -26.520000 -12.240000 # 1 UNK
231 1 1 0.000000 -10.200000 -28.559999 -10.200000 # 1 UNK
232 1 1 0.000000 -12.240000 -26.520000 -10.200000 # 1 UNK
233 1 1 0.000000 -8.160000 -28.559999 -12.240000 # 1 UNK
234 1 1 0.000000 -6.120000 -26.520000 -12.240000 # 1 UNK
235 1 1 0.000000 -6.120000 -28.559999 -10.200000 # 1 UNK
236 1 1 0.000000 -8.160000 -26.520000 -10.200000 # 1 UNK
237 1 1 0.000000 -4.080000 -28.559999 -12.240000 # 1 UNK
238 1 1 0.000000 -2.040000 -26.520000 -12.240000 # 1 UNK
239 1 1 0.000000 -2.040000 -28.559999 -10.200000 # 1 UNK
240 1 1 0.000000 -4.080000 -26.520000 -10.200000 # 1 UNK
241 1 1 0.000000 -48.959999 -28.559999 -8.160000 # 1 UNK
242 1 1 0.000000 -46.919998 -26.520000 -8.160000 # 1 UNK
243 1 1 0.000000 -46.919998 -28.559999 -6.120000 # 1 UNK
244 1 1 0.000000 -48.959999 -26.520000 -6.120000 # 1 UNK
245 1 1 0.000000 -44.880001 -28.559999 -8.160000 # 1 UNK
246 1 1 0.000000 -42.840000 -26.520000 -8.160000 # 1 UNK
247 1 1 0.000000 -42.840000 -28.559999 -6.120000 # 1 UNK
248 1 1 0.000000 -44.880001 -26.520000 -6.120000 # 1 UNK
249 1 1 0.000000 -40.799999 -28.559999 -8.160000 # 1 UNK
250 1 1 0.000000 -38.759998 -26.520000 -8.160000 # 1 UNK
251 1 1 0.000000 -38.759998 -28.559999 -6.120000 # 1 UNK
252 1 1 0.000000 -40.799999 -26.520000 -6.120000 # 1 UNK
253 1 1 0.000000 -36.720001 -28.559999 -8.160000 # 1 UNK
254 1 1 0.000000 -34.680000 -26.520000 -8.160000 # 1 UNK
255 1 1 0.000000 -34.680000 -28.559999 -6.120000 # 1 UNK
256 1 1 0.000000 -36.720001 -26.520000 -6.120000 # 1 UNK
257 1 1 0.000000 -32.639999 -28.559999 -8.160000 # 1 UNK
258 1 1 0.000000 -30.600000 -26.520000 -8.160000 # 1 UNK
259 1 1 0.000000 -30.600000 -28.559999 -6.120000 # 1 UNK
260 1 1 0.000000 -32.639999 -26.520000 -6.120000 # 1 UNK
261 1 1 0.000000 -28.559999 -28.559999 -8.160000 # 1 UNK
262 1 1 0.000000 -26.520000 -26.520000 -8.160000 # 1 UNK
263 1 1 0.000000 -26.520000 -28.559999 -6.120000 # 1 UNK
264 1 1 0.000000 -28.559999 -26.520000 -6.120000 # 1 UNK
265 1 1 0.000000 -24.480000 -28.559999 -8.160000 # 1 UNK
266 1 1 0.000000 -22.440001 -26.520000 -8.160000 # 1 UNK
267 1 1 0.000000 -22.440001 -28.559999 -6.120000 # 1 UNK
268 1 1 0.000000 -24.480000 -26.520000 -6.120000 # 1 UNK
269 1 1 0.000000 -20.400000 -28.559999 -8.160000 # 1 UNK
270 1 1 0.000000 -18.360001 -26.520000 -8.160000 # 1 UNK
271 1 1 0.000000 -18.360001 -28.559999 -6.120000 # 1 UNK
272 1 1 0.000000 -20.400000 -26.520000 -6.120000 # 1 UNK
273 1 1 0.000000 -16.320000 -28.559999 -8.160000 # 1 UNK
274 1 1 0.000000 -14.280000 -26.520000 -8.160000 # 1 UNK
275 1 1 0.000000 -14.280000 -28.559999 -6.120000 # 1 UNK
276 1 1 0.000000 -16.320000 -26.520000 -6.120000 # 1 UNK
277 1 1 0.000000 -12.240000 -28.559999 -8.160000 # 1 UNK
278 1 1 0.000000 -10.200000 -26.520000 -8.160000 # 1 UNK
279 1 1 0.000000 -10.200000 -28.559999 -6.120000 # 1 UNK
280 1 1 0.000000 -12.240000 -26.520000 -6.120000 # 1 UNK
281 1 1 0.000000 -8.160000 -28.559999 -8.160000 # 1 UNK
282 1 1 0.000000 -6.120000 -26.520000 -8.160000 # 1 UNK
283 1 1 0.000000 -6.120000 -28.559999 -6.120000 # 1 UNK
284 1 1 0.000000 -8.160000 -26.520000 -6.120000 # 1 UNK
285 1 1 0.000000 -4.080000 -28.559999 -8.160000 # 1 UNK
286 1 1 0.000000 -2.040000 -26.520000 -8.160000 # 1 UNK
287 1 1 0.000000 -2.040000 -28.559999 -6.120000 # 1 UNK
288 1 1 0.000000 -4.080000 -26.520000 -6.120000 # 1 UNK
289 1 1 0.000000 -48.959999 -28.559999 -4.080000 # 1 UNK
290 1 1 0.000000 -46.919998 -26.520000 -4.080000 # 1 UNK
291 1 1 0.000000 -46.919998 -28.559999 -2.040000 # 1 UNK
292 1 1 0.000000 -48.959999 -26.520000 -2.040000 # 1 UNK
293 1 1 0.000000 -44.880001 -28.559999 -4.080000 # 1 UNK
294 1 1 0.000000 -42.840000 -26.520000 -4.080000 # 1 UNK
295 1 1 0.000000 -42.840000 -28.559999 -2.040000 # 1 UNK
296 1 1 0.000000 -44.880001 -26.520000 -2.040000 # 1 UNK
297 1 1 0.000000 -40.799999 -28.559999 -4.080000 # 1 UNK
298 1 1 0.000000 -38.759998 -26.520000 -4.080000 # 1 UNK
299 1 1 0.000000 -38.759998 -28.559999 -2.040000 # 1 UNK
300 1 1 0.000000 -40.799999 -26.520000 -2.040000 # 1 UNK
301 1 1 0.000000 -36.720001 -28.559999 -4.080000 # 1 UNK
302 1 1 0.000000 -34.680000 -26.520000 -4.080000 # 1 UNK
303 1 1 0.000000 -34.680000 -28.559999 -2.040000 # 1 UNK
304 1 1 0.000000 -36.720001 -26.520000 -2.040000 # 1 UNK
305 1 1 0.000000 -32.639999 -28.559999 -4.080000 # 1 UNK
306 1 1 0.000000 -30.600000 -26.520000 -4.080000 # 1 UNK
307 1 1 0.000000 -30.600000 -28.559999 -2.040000 # 1 UNK
308 1 1 0.000000 -32.639999 -26.520000 -2.040000 # 1 UNK
309 1 1 0.000000 -28.559999 -28.559999 -4.080000 # 1 UNK
310 1 1 0.000000 -26.520000 -26.520000 -4.080000 # 1 UNK
311 1 1 0.000000 -26.520000 -28.559999 -2.040000 # 1 UNK
312 1 1 0.000000 -28.559999 -26.520000 -2.040000 # 1 UNK
313 1 1 0.000000 -24.480000 -28.559999 -4.080000 # 1 UNK
314 1 1 0.000000 -22.440001 -26.520000 -4.080000 # 1 UNK
315 1 1 0.000000 -22.440001 -28.559999 -2.040000 # 1 UNK
316 1 1 0.000000 -24.480000 -26.520000 -2.040000 # 1 UNK
317 1 1 0.000000 -20.400000 -28.559999 -4.080000 # 1 UNK
318 1 1 0.000000 -18.360001 -26.520000 -4.080000 # 1 UNK
319 1 1 0.000000 -18.360001 -28.559999 -2.040000 # 1 UNK
320 1 1 0.000000 -20.400000 -26.520000 -2.040000 # 1 UNK
321 1 1 0.000000 -16.320000 -28.559999 -4.080000 # 1 UNK
322 1 1 0.000000 -14.280000 -26.520000 -4.080000 # 1 UNK
323 1 1 0.000000 -14.280000 -28.559999 -2.040000 # 1 UNK
324 1 1 0.000000 -16.320000 -26.520000 -2.040000 # 1 UNK
325 1 1 0.000000 -12.240000 -28.559999 -4.080000 # 1 UNK
326 1 1 0.000000 -10.200000 -26.520000 -4.080000 # 1 UNK
327 1 1 0.000000 -10.200000 -28.559999 -2.040000 # 1 UNK
328 1 1 0.000000 -12.240000 -26.520000 -2.040000 # 1 UNK
329 1 1 0.000000 -8.160000 -28.559999 -4.080000 # 1 UNK
330 1 1 0.000000 -6.120000 -26.520000 -4.080000 # 1 UNK
331 1 1 0.000000 -6.120000 -28.559999 -2.040000 # 1 UNK
332 1 1 0.000000 -8.160000 -26.520000 -2.040000 # 1 UNK
333 1 1 0.000000 -4.080000 -28.559999 -4.080000 # 1 UNK
334 1 1 0.000000 -2.040000 -26.520000 -4.080000 # 1 UNK
335 1 1 0.000000 -2.040000 -28.559999 -2.040000 # 1 UNK
336 1 1 0.000000 -4.080000 -26.520000 -2.040000 # 1 UNK
337 1 1 0.000000 -48.959999 -28.559999 0.000000 # 1 UNK
338 1 1 0.000000 -46.919998 -26.520000 0.000000 # 1 UNK
339 1 1 0.000000 -46.919998 -28.559999 2.040000 # 1 UNK
340 1 1 0.000000 -48.959999 -26.520000 2.040000 # 1 UNK
341 1 1 0.000000 -44.880001 -28.559999 0.000000 # 1 UNK
342 1 1 0.000000 -42.840000 -26.520000 0.000000 # 1 UNK
343 1 1 0.000000 -42.840000 -28.559999 2.040000 # 1 UNK
344 1 1 0.000000 -44.880001 -26.520000 2.040000 # 1 UNK
345 1 1 0.000000 -40.799999 -28.559999 0.000000 # 1 UNK
346 1 1 0.000000 -38.759998 -26.520000 0.000000 # 1 UNK
347 1 1 0.000000 -38.759998 -28.559999 2.040000 # 1 UNK
348 1 1 0.000000 -40.799999 -26.520000 2.040000 # 1 UNK
349 1 1 0.000000 -36.720001 -28.559999 0.000000 # 1 UNK
350 1 1 0.000000 -34.680000 -26.520000 0.000000 # 1 UNK
351 1 1 0.000000 -34.680000 -28.559999 2.040000 # 1 UNK
352 1 1 0.000000 -36.720001 -26.520000 2.040000 # 1 UNK
353 1 1 0.000000 -32.639999 -28.559999 0.000000 # 1 UNK
354 1 1 0.000000 -30.600000 -26.520000 0.000000 # 1 UNK
355 1 1 0.000000 -30.600000 -28.559999 2.040000 # 1 UNK
356 1 1 0.000000 -32.639999 -26.520000 2.040000 # 1 UNK
357 1 1 0.000000 -28.559999 -28.559999 0.000000 # 1 UNK
358 1 1 0.000000 -26.520000 -26.520000 0.000000 # 1 UNK
359 1 1 0.000000 -26.520000 -28.559999 2.040000 # 1 UNK
360 1 1 0.000000 -28.559999 -26.520000 2.040000 # 1 UNK
361 1 1 0.000000 -24.480000 -28.559999 0.000000 # 1 UNK
362 1 1 0.000000 -22.440001 -26.520000 0.000000 # 1 UNK
363 1 1 0.000000 -22.440001 -28.559999 2.040000 # 1 UNK
364 1 1 0.000000 -24.480000 -26.520000 2.040000 # 1 UNK
365 1 1 0.000000 -20.400000 -28.559999 0.000000 # 1 UNK
366 1 1 0.000000 -18.360001 -26.520000 0.000000 # 1 UNK
367 1 1 0.000000 -18.360001 -28.559999 2.040000 # 1 UNK
368 1 1 0.000000 -20.400000 -26.520000 2.040000 # 1 UNK
369 1 1 0.000000 -16.320000 -28.559999 0.000000 # 1 UNK
370 1 1 0.000000 -14.280000 -26.520000 0.000000 # 1 UNK
371 1 1 0.000000 -14.280000 -28.559999 2.040000 # 1 UNK
372 1 1 0.000000 -16.320000 -26.520000 2.040000 # 1 UNK
373 1 1 0.000000 -12.240000 -28.559999 0.000000 # 1 UNK
374 1 1 0.000000 -10.200000 -26.520000 0.000000 # 1 UNK
375 1 1 0.000000 -10.200000 -28.559999 2.040000 # 1 UNK
376 1 1 0.000000 -12.240000 -26.520000 2.040000 # 1 UNK
377 1 1 0.000000 -8.160000 -28.559999 0.000000 # 1 UNK
378 1 1 0.000000 -6.120000 -26.520000 0.000000 # 1 UNK
379 1 1 0.000000 -6.120000 -28.559999 2.040000 # 1 UNK
380 1 1 0.000000 -8.160000 -26.520000 2.040000 # 1 UNK
381 1 1 0.000000 -4.080000 -28.559999 0.000000 # 1 UNK
382 1 1 0.000000 -2.040000 -26.520000 0.000000 # 1 UNK
383 1 1 0.000000 -2.040000 -28.559999 2.040000 # 1 UNK
384 1 1 0.000000 -4.080000 -26.520000 2.040000 # 1 UNK
385 1 1 0.000000 -48.959999 -28.559999 4.080000 # 1 UNK
386 1 1 0.000000 -46.919998 -26.520000 4.080000 # 1 UNK
387 1 1 0.000000 -46.919998 -28.559999 6.120000 # 1 UNK
388 1 1 0.000000 -48.959999 -26.520000 6.120000 # 1 UNK
389 1 1 0.000000 -44.880001 -28.559999 4.080000 # 1 UNK
390 1 1 0.000000 -42.840000 -26.520000 4.080000 # 1 UNK
391 1 1 0.000000 -42.840000 -28.559999 6.120000 # 1 UNK
392 1 1 0.000000 -44.880001 -26.520000 6.120000 # 1 UNK
393 1 1 0.000000 -40.799999 -28.559999 4.080000 # 1 UNK
394 1 1 0.000000 -38.759998 -26.520000 4.080000 # 1 UNK
395 1 1 0.000000 -38.759998 -28.559999 6.120000 # 1 UNK
396 1 1 0.000000 -40.799999 -26.520000 6.120000 # 1 UNK
397 1 1 0.000000 -36.720001 -28.559999 4.080000 # 1 UNK
398 1 1 0.000000 -34.680000 -26.520000 4.080000 # 1 UNK
399 1 1 0.000000 -34.680000 -28.559999 6.120000 # 1 UNK
400 1 1 0.000000 -36.720001 -26.520000 6.120000 # 1 UNK
401 1 1 0.000000 -32.639999 -28.559999 4.080000 # 1 UNK
402 1 1 0.000000 -30.600000 -26.520000 4.080000 # 1 UNK
403 1 1 0.000000 -30.600000 -28.559999 6.120000 # 1 UNK
404 1 1 0.000000 -32.639999 -26.520000 6.120000 # 1 UNK
405 1 1 0.000000 -28.559999 -28.559999 4.080000 # 1 UNK
406 1 1 0.000000 -26.520000 -26.520000 4.080000 # 1 UNK
407 1 1 0.000000 -26.520000 -28.559999 6.120000 # 1 UNK
408 1 1 0.000000 -28.559999 -26.520000 6.120000 # 1 UNK
409 1 1 0.000000 -24.480000 -28.559999 4.080000 # 1 UNK
410 1 1 0.000000 -22.440001 -26.520000 4.080000 # 1 UNK
411 1 1 0.000000 -22.440001 -28.559999 6.120000 # 1 UNK
412 1 1 0.000000 -24.480000 -26.520000 6.120000 # 1 UNK
413 1 1 0.000000 -20.400000 -28.559999 4.080000 # 1 UNK
414 1 1 0.000000 -18.360001 -26.520000 4.080000 # 1 UNK
415 1 1 0.000000 -18.360001 -28.559999 6.120000 # 1 UNK
416 1 1 0.000000 -20.400000 -26.520000 6.120000 # 1 UNK
417 1 1 0.000000 -16.320000 -28.559999 4.080000 # 1 UNK
418 1 1 0.000000 -14.280000 -26.520000 4.080000 # 1 UNK
419 1 1 0.000000 -14.280000 -28.559999 6.120000 # 1 UNK
420 1 1 0.000000 -16.320000 -26.520000 6.120000 # 1 UNK
421 1 1 0.000000 -12.240000 -28.559999 4.080000 # 1 UNK
422 1 1 0.000000 -10.200000 -26.520000 4.080000 # 1 UNK
423 1 1 0.000000 -10.200000 -28.559999 6.120000 # 1 UNK
424 1 1 0.000000 -12.240000 -26.520000 6.120000 # 1 UNK
425 1 1 0.000000 -8.160000 -28.559999 4.080000 # 1 UNK
426 1 1 0.000000 -6.120000 -26.520000 4.080000 # 1 UNK
427 1 1 0.000000 -6.120000 -28.559999 6.120000 # 1 UNK
428 1 1 0.000000 -8.160000 -26.520000 6.120000 # 1 UNK
429 1 1 0.000000 -4.080000 -28.559999 4.080000 # 1 UNK
430 1 1 0.000000 -2.040000 -26.520000 4.080000 # 1 UNK
431 1 1 0.000000 -2.040000 -28.559999 6.120000 # 1 UNK
432 1 1 0.000000 -4.080000 -26.520000 6.120000 # 1 UNK
433 1 1 0.000000 -48.959999 -28.559999 8.160000 # 1 UNK
434 1 1 0.000000 -46.919998 -26.520000 8.160000 # 1 UNK
435 1 1 0.000000 -46.919998 -28.559999 10.200000 # 1 UNK
436 1 1 0.000000 -48.959999 -26.520000 10.200000 # 1 UNK
437 1 1 0.000000 -44.880001 -28.559999 8.160000 # 1 UNK
438 1 1 0.000000 -42.840000 -26.520000 8.160000 # 1 UNK
439 1 1 0.000000 -42.840000 -28.559999 10.200000 # 1 UNK
440 1 1 0.000000 -44.880001 -26.520000 10.200000 # 1 UNK
441 1 1 0.000000 -40.799999 -28.559999 8.160000 # 1 UNK
442 1 1 0.000000 -38.759998 -26.520000 8.160000 # 1 UNK
443 1 1 0.000000 -38.759998 -28.559999 10.200000 # 1 UNK
444 1 1 0.000000 -40.799999 -26.520000 10.200000 # 1 UNK
445 1 1 0.000000 -36.720001 -28.559999 8.160000 # 1 UNK
446 1 1 0.000000 -34.680000 -26.520000 8.160000 # 1 UNK
447 1 1 0.000000 -34.680000 -28.559999 10.200000 # 1 UNK
448 1 1 0.000000 -36.720001 -26.520000 10.200000 # 1 UNK
449 1 1 0.000000 -32.639999 -28.559999 8.160000 # 1 UNK
450 1 1 0.000000 -30.600000 -26.520000 8.160000 # 1 UNK
451 1 1 0.000000 -30.600000 -28.559999 10.200000 # 1 UNK
452 1 1 0.000000 -32.639999 -26.520000 10.200000 # 1 UNK
453 1 1 0.000000 -28.559999 -28.559999 8.160000 # 1 UNK
454 1 1 0.000000 -26.520000 -26.520000 8.160000 # 1 UNK
455 1 1 0.000000 -26.520000 -28.559999 10.200000 # 1 UNK
456 1 1 0.000000 -28.559999 -26.520000 10.200000 # 1 UNK
457 1 1 0.000000 -24.480000 -28.559999 8.160000 # 1 UNK
458 1 1 0.000000 -22.440001 -26.520000 8.160000 # 1 UNK
459 1 1 0.000000 -22.440001 -28.559999 10.200000 # 1 UNK
460 1 1 0.000000 -24.480000 -26.520000 10.200000 # 1 UNK
461 1 1 0.000000 -20.400000 -28.559999 8.160000 # 1 UNK
462 1 1 0.000000 -18.360001 -26.520000 8.160000 # 1 UNK
463 1 1 0.000000 -18.360001 -28.559999 10.200000 # 1 UNK
464 1 1 0.000000 -20.400000 -26.520000 10.200000 # 1 UNK
465 1 1 0.000000 -16.320000 -28.559999 8.160000 # 1 UNK
466 1 1 0.000000 -14.280000 -26.520000 8.160000 # 1 UNK
467 1 1 0.000000 -14.280000 -28.559999 10.200000 # 1 UNK
468 1 1 0.000000 -16.320000 -26.520000 10.200000 # 1 UNK
469 1 1 0.000000 -12.240000 -28.559999 8.160000 # 1 UNK
470 1 1 0.000000 -10.200000 -26.520000 8.160000 # 1 UNK
471 1 1 0.000000 -10.200000 -28.559999 10.200000 # 1 UNK
472 1 1 0.000000 -12.240000 -26.520000 10.200000 # 1 UNK
473 1 1 0.000000 -8.160000 -28.559999 8.160000 # 1 UNK
474 1 1 0.000000 -6.120000 -26.520000 8.160000 # 1 UNK
475 1 1 0.000000 -6.120000 -28.559999 10.200000 # 1 UNK
476 1 1 0.000000 -8.160000 -26.520000 10.200000 # 1 UNK
477 1 1 0.000000 -4.080000 -28.559999 8.160000 # 1 UNK
478 1 1 0.000000 -2.040000 -26.520000 8.160000 # 1 UNK
479 1 1 0.000000 -2.040000 -28.559999 10.200000 # 1 UNK
480 1 1 0.000000 -4.080000 -26.520000 10.200000 # 1 UNK
481 1 1 0.000000 -48.959999 -28.559999 12.240000 # 1 UNK
482 1 1 0.000000 -46.919998 -26.520000 12.240000 # 1 UNK
483 1 1 0.000000 -46.919998 -28.559999 14.280000 # 1 UNK
484 1 1 0.000000 -48.959999 -26.520000 14.280000 # 1 UNK
485 1 1 0.000000 -44.880001 -28.559999 12.240000 # 1 UNK
486 1 1 0.000000 -42.840000 -26.520000 12.240000 # 1 UNK
487 1 1 0.000000 -42.840000 -28.559999 14.280000 # 1 UNK
488 1 1 0.000000 -44.880001 -26.520000 14.280000 # 1 UNK
489 1 1 0.000000 -40.799999 -28.559999 12.240000 # 1 UNK
490 1 1 0.000000 -38.759998 -26.520000 12.240000 # 1 UNK
491 1 1 0.000000 -38.759998 -28.559999 14.280000 # 1 UNK
492 1 1 0.000000 -40.799999 -26.520000 14.280000 # 1 UNK
493 1 1 0.000000 -36.720001 -28.559999 12.240000 # 1 UNK
494 1 1 0.000000 -34.680000 -26.520000 12.240000 # 1 UNK
495 1 1 0.000000 -34.680000 -28.559999 14.280000 # 1 UNK
496 1 1 0.000000 -36.720001 -26.520000 14.280000 # 1 UNK
497 1 1 0.000000 -32.639999 -28.559999 12.240000 # 1 UNK
498 1 1 0.000000 -30.600000 -26.520000 12.240000 # 1 UNK
499 1 1 0.000000 -30.600000 -28.559999 14.280000 # 1 UNK
500 1 1 0.000000 -32.639999 -26.520000 14.280000 # 1 UNK
501 1 1 0.000000 -28.559999 -28.559999 12.240000 # 1 UNK
502 1 1 0.000000 -26.520000 -26.520000 12.240000 # 1 UNK
503 1 1 0.000000 -26.520000 -28.559999 14.280000 # 1 UNK
504 1 1 0.000000 -28.559999 -26.520000 14.280000 # 1 UNK
505 1 1 0.000000 -24.480000 -28.559999 12.240000 # 1 UNK
506 1 1 0.000000 -22.440001 -26.520000 12.240000 # 1 UNK
507 1 1 0.000000 -22.440001 -28.559999 14.280000 # 1 UNK
508 1 1 0.000000 -24.480000 -26.520000 14.280000 # 1 UNK
509 1 1 0.000000 -20.400000 -28.559999 12.240000 # 1 UNK
510 1 1 0.000000 -18.360001 -26.520000 12.240000 # 1 UNK
511 1 1 0.000000 -18.360001 -28.559999 14.280000 # 1 UNK
512 1 1 0.000000 -20.400000 -26.520000 14.280000 # 1 UNK
513 1 1 0.000000 -16.320000 -28.559999 12.240000 # 1 UNK
514 1 1 0.000000 -14.280000 -26.520000 12.240000 # 1 UNK
515 1 1 0.000000 -14.280000 -28.559999 14.280000 # 1 UNK
516 1 1 0.000000 -16.320000 -26.520000 14.280000 # 1 UNK
517 1 1 0.000000 -12.240000 -28.559999 12.240000 # 1 UNK
518 1 1 0.000000 -10.200000 -26.520000 12.240000 # 1 UNK
519 1 1 0.000000 -10.200000 -28.559999 14.280000 # 1 UNK